/*--------------------------------*- C++ -*----------------------------------*\
| =========                 |                                                 |
| \\      /  F ield         | OpenFOAM: The Open Source CFD Toolbox           |
|  \\    /   O peration     | Version:  v2006                                 |
|   \\  /    A nd           | Website:  www.openfoam.com                      |
|    \\/     M anipulation  |                                                 |
\*---------------------------------------------------------------------------*/
FoamFile
{
    version     2.0;
    format      binary;
    class       volScalarField;
    arch        "LSB;label=32;scalar=64";
    location    "4.99994282560906/cav_fluid";
    object      Qdot;
}
// * * * * * * * * * * * * * * * * * * * * * * * * * * * * * * * * * * * * * //

dimensions      [1 -1 -3 0 0 0 0];


internalField   uniform 0;

boundaryField
{
    cav_disc_int
    {
        type            calculated;
        value           uniform 0;
    }
    cav_us_int
    {
        type            calculated;
        value           uniform 0;
    }
    cav_ds_int
    {
        type            calculated;
        value           uniform 0;
    }
    cav_al_int
    {
        type            calculated;
        value           uniform 0;
    }
}


// ************************************************************************* //
